                         Program Version 5.0.4 -  RELEASE  -
|  1> ! BHANDHLYP def2-SVP TightSCF
|  2>
|  3> %CPCM
|  4> end
|  5>
|  6> %tddft
|  7> NRoots 5
|  8> IRoot 1
|  9> end
| 10>
| 11> #  0
| 12> * xyz 0 1
| 13>  C 0.000000    0.000000    0.000000
| 14>  O 0.000000    0.000000    1.159076
| 15>  O 0.000000    0.000000   -1.159076
| 16> *
| 17>
| 18>                          ****END OF INPUT****

CARTESIAN COORDINATES (ANGSTROEM)
---------------------------------
  C      0.000000    0.000000    0.000000
  O      0.000000    0.000000    1.159076
  O      0.000000    0.000000   -1.159076

 Total Charge           Charge          ....    0
 Multiplicity           Mult            ....    1
 Number of Electrons    NEL             ....   22
 Basis Dimension        Dim             ....   42

ORBITAL ENERGIES
----------------

  NO   OCC          E(Eh)            E(eV)
   0   2.0000     -19.766781      -537.8815
   1   2.0000     -19.766713      -537.8796
   2   2.0000     -10.803398      -293.9754
   3   2.0000      -1.293433       -35.1961
   4   2.0000      -1.250083       -34.0165
   5   2.0000      -0.649463       -17.6728
   6   2.0000      -0.609630       -16.5889
   7   2.0000      -0.598426       -16.2840
   8   2.0000      -0.598426       -16.2840
   9   2.0000      -0.441449       -12.0125
  10   2.0000      -0.441449       -12.0125
  11   0.0000       0.097252         2.6464
  12   0.0000       0.097252         2.6464
  13   0.0000       0.119277         3.2457
  14   0.0000       0.387845        10.5538
  15   0.0000       0.483514        13.1571

MULLIKEN ATOMIC CHARGES
-----------------------
   0 C :    0.423513
   1 O :   -0.211757
   2 O :   -0.211757
Sum of atomic charges:    0.0000000

LOEWDIN ATOMIC CHARGES
----------------------
   0 C :    0.221996
   1 O :   -0.110998
   2 O :   -0.110998

  Mayer bond orders larger than 0.100000
B(  0-C ,  1-O ) :   2.1384 B(  0-C ,  2-O ) :   2.1384 B(  1-O ,  2-O ) :   0.2185

-----------------------------------------------------------------------------
         ABSORPTION SPECTRUM VIA TRANSITION ELECTRIC DIPOLE MOMENTS
-----------------------------------------------------------------------------
State   Energy    Wavelength  fosc         T2        TX        TY        TZ
        (cm-1)      (nm)                 (au**2)    (au)      (au)      (au)
-----------------------------------------------------------------------------
   1   73326.3    136.4   0.000000000   0.00000   0.00000   0.00000   0.00000
   2   75686.8    132.1   0.000000000   0.00000   0.00000  -0.00000   0.00000
   3   75693.3    132.1   0.000000000   0.00000   0.00000   0.00000  -0.00000
   4   86515.8    115.6   0.000000000   0.00000  -0.00000  -0.00000  -0.00000
   5   86515.8    115.6   0.000000000   0.00000   0.00000  -0.00000   0.00000

FINAL SINGLE POINT ENERGY      -188.012480144048

DIPOLE MOMENT
-------------
                                X             Y             Z
Electronic contribution:      0.00000      -0.00000       0.00000
Nuclear contribution   :      0.00000       0.00000       0.00000
                        -----------------------------------------
Total Dipole Moment    :      0.00000      -0.00000       0.00000
                        -----------------------------------------
Magnitude (a.u.)       :      0.00000
Magnitude (Debye)      :      0.00000

Rotational constants in cm-1:     0.000000     0.392148     0.392148
Rotational constants in MHz :     0.000000 11756.307666 11756.307666

                             ****ORCA TERMINATED NORMALLY****
TOTAL RUN TIME: 0 days 0 hours 0 minutes 1 seconds 984 msec
