                         Program Version 5.0.4 -  RELEASE  -
|  1> ! BHANDHLYP def2-SVP TightSCF
|  2>
|  3> %CPCM
|  4> end
|  5>
|  6> %tddft
|  7> NRoots 5
|  8> IRoot 1
|  9> end
| 10>
| 11> #  1
| 12> * xyz 0 1
| 13>  C 0.000000    0.000000    0.000000
| 14>  O 0.000000    0.000000    1.200000
| 15>  O 0.000000    0.000000   -1.159076
| 16> *
| 17>
| 18>                          ****END OF INPUT****

CARTESIAN COORDINATES (ANGSTROEM)
---------------------------------
  C      0.000000    0.000000    0.000000
  O      0.000000    0.000000    1.200000
  O      0.000000    0.000000   -1.159076

 Total Charge           Charge          ....    0
 Multiplicity           Mult            ....    1
 Number of Electrons    NEL             ....   22
 Basis Dimension        Dim             ....   42

ORBITAL ENERGIES
----------------

  NO   OCC          E(Eh)            E(eV)
   0   2.0000     -19.776472      -538.1452
   1   2.0000     -19.766039      -537.8613
   2   2.0000     -10.811663      -294.2003
   3   2.0000      -1.289442       -35.0875
   4   2.0000      -1.234421       -33.5903
   5   2.0000      -0.653111       -17.7721
   6   2.0000      -0.606959       -16.5162
   7   2.0000      -0.591759       -16.1026
   8   2.0000      -0.591759       -16.1026
   9   2.0000      -0.439837       -11.9686
  10   2.0000      -0.439837       -11.9686
  11   0.0000       0.082300         2.2395
  12   0.0000       0.082300         2.2395
  13   0.0000       0.112061         3.0493
  14   0.0000       0.388944        10.5837
  15   0.0000       0.485901        13.2220

MULLIKEN ATOMIC CHARGES
-----------------------
   0 C :    0.445232
   1 O :   -0.256071
   2 O :   -0.189161
Sum of atomic charges:    0.0000000

LOEWDIN ATOMIC CHARGES
----------------------
   0 C :    0.250074
   1 O :   -0.156801
   2 O :   -0.093272

  Mayer bond orders larger than 0.100000
B(  0-C ,  1-O ) :   2.0817 B(  0-C ,  2-O ) :   2.1591 B(  1-O ,  2-O ) :   0.2158

-----------------------------------------------------------------------------
         ABSORPTION SPECTRUM VIA TRANSITION ELECTRIC DIPOLE MOMENTS
-----------------------------------------------------------------------------
State   Energy    Wavelength  fosc         T2        TX        TY        TZ
        (cm-1)      (nm)                 (au**2)    (au)      (au)      (au)
-----------------------------------------------------------------------------
   1   70061.7    142.7   0.000000000   0.00000  -0.00000  -0.00000  -0.00000
   2   72429.8    138.1   0.000000000   0.00000  -0.00000   0.00000  -0.00000
   3   72439.5    138.0   0.000000000   0.00000   0.00000   0.00000   0.00000
   4   84127.1    118.9   0.000690046   0.00270   0.03547   0.03798  -0.00000
   5   84127.1    118.9   0.000690047   0.00270  -0.03798   0.03547  -0.00000

FINAL SINGLE POINT ENERGY      -188.022487568969

DIPOLE MOMENT
-------------
                                X             Y             Z
Electronic contribution:      0.00000       0.00000      -0.12435
Nuclear contribution   :      0.00000       0.00000       0.00017
                        -----------------------------------------
Total Dipole Moment    :      0.00000       0.00000      -0.12418
                        -----------------------------------------
Magnitude (a.u.)       :      0.12418
Magnitude (Debye)      :      0.31564

Rotational constants in cm-1:     0.000000     0.378630     0.378630
Rotational constants in MHz :     0.000000 11351.028882 11351.028882

                             ****ORCA TERMINATED NORMALLY****
TOTAL RUN TIME: 0 days 0 hours 0 minutes 2 seconds 2 msec
