                         Program Version 5.0.4 -  RELEASE  -
|  1> ! BHANDHLYP def2-SVP TightSCF
|  2>
|  3> %CPCM
|  4> end
|  5>
|  6> %tddft
|  7> NRoots 5
|  8> IRoot 1
|  9> end
| 10>
| 11> #  2
| 12> * xyz 0 1
| 13>  C 0.000000    0.000000    0.000000
| 14>  O 0.000000    0.000000    1.300000
| 15>  O 0.000000    0.000000   -1.159076
| 16> *
| 17>
| 18>                          ****END OF INPUT****

CARTESIAN COORDINATES (ANGSTROEM)
---------------------------------
  C      0.000000    0.000000    0.000000
  O      0.000000    0.000000    1.300000
  O      0.000000    0.000000   -1.159076

 Total Charge           Charge          ....    0
 Multiplicity           Mult            ....    1
 Number of Electrons    NEL             ....   22
 Basis Dimension        Dim             ....   42

ORBITAL ENERGIES
----------------

  NO   OCC          E(Eh)            E(eV)
   0   2.0000     -19.798073      -538.7330
   1   2.0000     -19.763460      -537.7911
   2   2.0000     -10.828599      -294.6612
   3   2.0000      -1.298346       -35.3298
   4   2.0000      -1.181311       -32.1451
   5   2.0000      -0.665192       -18.1008
   6   2.0000      -0.596015       -16.2184
   7   2.0000      -0.583440       -15.8762
   8   2.0000      -0.583440       -15.8762
   9   2.0000      -0.431217       -11.7340
  10   2.0000      -0.431217       -11.7340
  11   0.0000       0.050867         1.3842
  12   0.0000       0.050867         1.3842
  13   0.0000       0.089687         2.4405
  14   0.0000       0.389296        10.5933
  15   0.0000       0.459835        12.5128

MULLIKEN ATOMIC CHARGES
-----------------------
   0 C :    0.488305
   1 O :   -0.348790
   2 O :   -0.139515
Sum of atomic charges:   -0.0000000

LOEWDIN ATOMIC CHARGES
----------------------
   0 C :    0.307210
   1 O :   -0.254468
   2 O :   -0.052743

  Mayer bond orders larger than 0.100000
B(  0-C ,  1-O ) :   1.9440 B(  0-C ,  2-O ) :   2.2092 B(  1-O ,  2-O ) :   0.2044

-----------------------------------------------------------------------------
         ABSORPTION SPECTRUM VIA TRANSITION ELECTRIC DIPOLE MOMENTS
-----------------------------------------------------------------------------
State   Energy    Wavelength  fosc         T2        TX        TY        TZ
        (cm-1)      (nm)                 (au**2)    (au)      (au)      (au)
-----------------------------------------------------------------------------
   1   62795.0    159.2   0.000000000   0.00000   0.00000   0.00000  -0.00000
   2   65101.6    153.6   0.000000000   0.00000  -0.00000   0.00000   0.00000
   3   65118.7    153.6   0.000000000   0.00000  -0.00000  -0.00000   0.00000
   4   75309.8    132.8   0.005282695   0.02309  -0.10282  -0.11189   0.00000
   5   75309.8    132.8   0.005282703   0.02309   0.11189  -0.10282   0.00000

FINAL SINGLE POINT ENERGY      -188.026208324753

DIPOLE MOMENT
-------------
                                X             Y             Z
Electronic contribution:     -0.00000       0.00000      -0.40379
Nuclear contribution   :      0.00000       0.00000       0.00057
                        -----------------------------------------
Total Dipole Moment    :     -0.00000       0.00000      -0.40322
                        -----------------------------------------
Magnitude (a.u.)       :      0.40322
Magnitude (Debye)      :      1.02491

Rotational constants in cm-1:     0.000000     0.348178     0.348178
Rotational constants in MHz :     0.000000 10438.107512 10438.107512

                             ****ORCA TERMINATED NORMALLY****
TOTAL RUN TIME: 0 days 0 hours 0 minutes 2 seconds 255 msec
