                         Program Version 5.0.4 -  RELEASE  -
|  1> ! BHANDHLYP def2-SVP TightSCF
|  2>
|  3> %CPCM
|  4> end
|  5>
|  6> %tddft
|  7> NRoots 5
|  8> IRoot 1
|  9> end
| 10>
| 11> #  3
| 12> * xyz 0 1
| 13>  C 0.000000    0.000000    0.000000
| 14>  O 0.000000    0.000000    1.400000
| 15>  O 0.000000    0.000000   -1.159076
| 16> *
| 17>
| 18>                          ****END OF INPUT****

CARTESIAN COORDINATES (ANGSTROEM)
---------------------------------
  C      0.000000    0.000000    0.000000
  O      0.000000    0.000000    1.400000
  O      0.000000    0.000000   -1.159076

 Total Charge           Charge          ....    0
 Multiplicity           Mult            ....    1
 Number of Electrons    NEL             ....   22
 Basis Dimension        Dim             ....   42

ORBITAL ENERGIES
----------------

  NO   OCC          E(Eh)            E(eV)
   0   2.0000     -19.816130      -539.2243
   1   2.0000     -19.760060      -537.6986
   2   2.0000     -10.839796      -294.9659
   3   2.0000      -1.309388       -35.6303
   4   2.0000      -1.132032       -30.8042
   5   2.0000      -0.677322       -18.4309
   6   2.0000      -0.583031       -15.8651
   7   2.0000      -0.582118       -15.8402
   8   2.0000      -0.582118       -15.8402
   9   2.0000      -0.419336       -11.4107
  10   2.0000      -0.419336       -11.4107
  11   0.0000       0.026308         0.7159
  12   0.0000       0.026308         0.7159
  13   0.0000       0.060645         1.6502
  14   0.0000       0.368537        10.0284
  15   0.0000       0.433425        11.7941

MULLIKEN ATOMIC CHARGES
-----------------------
   0 C :    0.509270
   1 O :   -0.410710
   2 O :   -0.098560
Sum of atomic charges:    0.0000000

LOEWDIN ATOMIC CHARGES
----------------------
   0 C :    0.344718
   1 O :   -0.327581
   2 O :   -0.017137

  Mayer bond orders larger than 0.100000
B(  0-C ,  1-O ) :   1.8042 B(  0-C ,  2-O ) :   2.2594 B(  1-O ,  2-O ) :   0.1861

-----------------------------------------------------------------------------
         ABSORPTION SPECTRUM VIA TRANSITION ELECTRIC DIPOLE MOMENTS
-----------------------------------------------------------------------------
State   Energy    Wavelength  fosc         T2        TX        TY        TZ
        (cm-1)      (nm)                 (au**2)    (au)      (au)      (au)
-----------------------------------------------------------------------------
   1   56940.6    175.6   0.000000000   0.00000  -0.00000   0.00000  -0.00000
   2   59073.0    169.3   0.000000000   0.00000  -0.00000  -0.00000   0.00000
   3   59094.1    169.2   0.000000000   0.00000   0.00000  -0.00000   0.00000
   4   62933.4    158.9   0.006933084   0.03627  -0.12181  -0.14639   0.00000
   5   62933.4    158.9   0.006933095   0.03627  -0.14639   0.12181   0.00000

FINAL SINGLE POINT ENERGY      -188.011652976485

DIPOLE MOMENT
-------------
                                X             Y             Z
Electronic contribution:      0.00000       0.00000      -0.64097
Nuclear contribution   :      0.00000       0.00000       0.00097
                        -----------------------------------------
Total Dipole Moment    :      0.00000       0.00000      -0.63999
                        -----------------------------------------
Magnitude (a.u.)       :      0.63999
Magnitude (Debye)      :      1.62673

Rotational constants in cm-1:     0.000000     0.321010     0.321010
Rotational constants in MHz :     0.000000  9623.634369  9623.634369

                             ****ORCA TERMINATED NORMALLY****
TOTAL RUN TIME: 0 days 0 hours 0 minutes 2 seconds 287 msec
