                         Program Version 5.0.4 -  RELEASE  -
|  1> ! BHANDHLYP def2-SVP TightSCF
|  2>
|  3> %CPCM
|  4> end
|  5>
|  6> %tddft
|  7> NRoots 5
|  8> IRoot 1
|  9> end
| 10>
| 11> #  4
| 12> * xyz 0 1
| 13>  C 0.000000    0.000000    0.000000
| 14>  O 0.000000    0.000000    1.500000
| 15>  O 0.000000    0.000000   -1.159076
| 16> *
| 17>
| 18>                          ****END OF INPUT****

CARTESIAN COORDINATES (ANGSTROEM)
---------------------------------
  C      0.000000    0.000000    0.000000
  O      0.000000    0.000000    1.500000
  O      0.000000    0.000000   -1.159076

 Total Charge           Charge          ....    0
 Multiplicity           Mult            ....    1
 Number of Electrons    NEL             ....   22
 Basis Dimension        Dim             ....   42

ORBITAL ENERGIES
----------------

  NO   OCC          E(Eh)            E(eV)
   0   2.0000     -19.830105      -539.6046
   1   2.0000     -19.756510      -537.6020
   2   2.0000     -10.844658      -295.0981
   3   2.0000      -1.318068       -35.8665
   4   2.0000      -1.091107       -29.6905
   5   2.0000      -0.687416       -18.7056
   6   2.0000      -0.583247       -15.8710
   7   2.0000      -0.583247       -15.8710
   8   2.0000      -0.569883       -15.5073
   9   2.0000      -0.407951       -11.1009
  10   2.0000      -0.407951       -11.1009
  11   0.0000       0.008201         0.2232
  12   0.0000       0.008201         0.2232
  13   0.0000       0.027933         0.7601
  14   0.0000       0.334500         9.1022
  15   0.0000       0.442707        12.0467

MULLIKEN ATOMIC CHARGES
-----------------------
   0 C :    0.504917
   1 O :   -0.437873
   2 O :   -0.067044
Sum of atomic charges:    0.0000000

LOEWDIN ATOMIC CHARGES
----------------------
   0 C :    0.360301
   1 O :   -0.372681
   2 O :    0.012380

  Mayer bond orders larger than 0.100000
B(  0-C ,  1-O ) :   1.6513 B(  0-C ,  2-O ) :   2.3110 B(  1-O ,  2-O ) :   0.1614

-----------------------------------------------------------------------------
         ABSORPTION SPECTRUM VIA TRANSITION ELECTRIC DIPOLE MOMENTS
-----------------------------------------------------------------------------
State   Energy    Wavelength  fosc         T2        TX        TY        TZ
        (cm-1)      (nm)                 (au**2)    (au)      (au)      (au)
-----------------------------------------------------------------------------
   1   49336.8    202.7   0.004981684   0.03324  -0.11526  -0.14127   0.00000
   2   49336.8    202.7   0.004981690   0.03324  -0.14127   0.11526   0.00000
   3   52946.9    188.9   0.000000000   0.00000   0.00000  -0.00000   0.00000
   4   54803.3    182.5   0.000000000   0.00000   0.00000   0.00000   0.00000
   5   54824.8    182.4   0.000000000   0.00000  -0.00000   0.00000   0.00000

FINAL SINGLE POINT ENERGY      -188.003476291471

DIPOLE MOMENT
-------------
                                X             Y             Z
Electronic contribution:      0.00000       0.00000      -0.82650
Nuclear contribution   :      0.00000       0.00000       0.00138
                        -----------------------------------------
Total Dipole Moment    :      0.00000       0.00000      -0.82512
                        -----------------------------------------
Magnitude (a.u.)       :      0.82512
Magnitude (Debye)      :      2.09729

Rotational constants in cm-1:     0.000000     0.296708     0.296708
Rotational constants in MHz :     0.000000  8895.067119  8895.067119

                             ****ORCA TERMINATED NORMALLY****
TOTAL RUN TIME: 0 days 0 hours 0 minutes 1 seconds 974 msec
